% Model:              fick_darcy_comb_zaloha1_032025_small_dt.mph
% Version:            COMSOL 6.2.0.658
% Date:               Jun 10 2025, 20:41
% Table:              Table 3 - Volume Average 2
% Time (s)                                        c_b+(c_w/rho_0) (1)                               c_b+(c_w/rho_0) (1)                               c_b+(c_w/rho_0) (1)                               c_b+(c_w/rho_0) (1)
0                                                 0.37699162393416136                               0.3787107959951158                                0.37885264056470874                               0.3801910144510422
600                                               0.37719989650188707                               0.37900658929066616                               0.37915753279907627                               0.38059859659972856
1200                                              0.377409803827879                                 0.37928523521182783                               0.37944376150740017                               0.3809823585357693
1800                                              0.37761971115386506                               0.3795520951075641                                0.3797170909501894                                0.3813365960506241
2400                                              0.37780215531940997                               0.37980436589801697                               0.37997560833762184                               0.3816571027400326
3000                                              0.37798159173001633                               0.38004367635928543                               0.38021974258610347                               0.38195227328816406
3600                                              0.3781610281406361                                0.3802690286196552                                0.38044860594411173                               0.3822230141952848
4200                                              0.3783327642071922                                0.3804802232275273                                0.3806618067094576                                0.38247635312312833
4800                                              0.37849828889565384                               0.38067682489423027                               0.3808587793666625                                0.38271455952313377
5400                                              0.3786589422437396                                0.38085839833114915                               0.3810464224117281                                0.38293536495441566
6000                                              0.3788147242514186                                0.3810401284335582                                0.3812406598326698                                0.38313876941695607
6600                                              0.3789656349187422                                0.3812246405994631                                0.3814287763338475                                0.38333232487317365
7200                                              0.3791116742456479                                0.381403832344261                                 0.3816107719152267                                0.3835199214495523
7800                                              0.37925301832265584                               0.3815777036679432                                0.3817866465768093                                0.38369620579298047
8400                                              0.3793897149726036                                0.3817462545704978                                0.38195640031863426                               0.38386117790340973
9000                                              0.37952170930049683                               0.38190948505192385                               0.3821200331406605                                0.38402421773874534
9600                                              0.3796490262350943                                0.3820673951122581                                0.3822775450429191                                0.3841837328661623
10200                                             0.37977169070509315                               0.3822199847514758                                0.38242893602536                                  0.3843373987275933
10800                                             0.3798897276392497                                0.38236725396956994                               0.38257816781162296                               0.38448521532305274
11400                                             0.3800031619662547                                0.38251033143210467                               0.3827246979616921                                0.3846166655162214
12000                                             0.3801120186148468                                0.38265272619838014                               0.38286645627874744                               0.384747993409982
12600                                             0.38021632251375703                               0.3827908657297831                                0.383003442762836                                 0.38487932130376645
13200                                             0.38031609859176474                               0.38292475002636106                               0.38313565741392624                               0.3850106491975451
13800                                             0.3804113717775127                                0.38305437908808304                               0.38326310023201027                               0.38514197709131937
14400                                             0.38050216699976397                               0.3831797529149702                                0.3833857712171183                                0.3852733049851057
15000                                             0.3805892345329416                                0.3833008715070235                                0.3835039401958383                                0.38540463287887483
15600                                             0.38067668395133586                               0.38341773486420433                               0.38362688457809524                               0.3855311853824181
16200                                             0.38076413336974035                               0.3835318445999557                                0.3837473238377522                                0.38565203082993904
16800                                             0.3808515827881295                                0.38364967231312963                               0.3838652579748639                                0.3857728762774789
17400                                             0.38093903220652064                               0.3837652603130746                                0.38398068698936577                               0.38589372172501674
18000                                             0.38102648162494357                               0.38387860859981304                               0.3840936108813143                                0.38601456717255667
18600                                             0.3811139310433399                                0.38398971717331554                               0.3842040296506906                                0.3861354126200941
19200                                             0.3812013804617442                                0.3840985860336058                                0.3843119432974769                                0.38625625806764385
19800                                             0.3812888298801365                                0.38420521518067363                               0.3844126322651807                                0.3863771035151667
20400                                             0.38137627929854323                               0.3843096046145149                                0.38450639519248647                               0.3864846499856192
21000                                             0.3814637287169432                                0.38441021102717243                               0.38460015811977716                               0.3865910424640198
21600                                             0.38155117813534867                               0.3845005248825037                                0.3846939210470493                                0.386697434942376
22200                                             0.381638627553745                                 0.3845908387378311                                0.38478768397435464                               0.38680382742073005
22800                                             0.38172607697214356                               0.38468115259315716                               0.3848814469016409                                0.3869102198990983
23400                                             0.3818135263905473                                0.3847714664484928                                0.3849752098289195                                0.3870166123774749
24000                                             0.38190097580894367                               0.38486178030379514                               0.38506897275619895                               0.38712300485582585
24600                                             0.3819884252273574                                0.3849520941591427                                0.385162735683493                                 0.3872293973342151
25200                                             0.38207587464575216                               0.3850424080144683                                0.3852564986107946                                0.3873357898125798
25800                                             0.38216332406416065                               0.3851327218697798                                0.3853502615380821                                0.3874421822909628
26400                                             0.38225077348255393                               0.38522303572511224                               0.3854440244653527                                0.3875485747693111
27000                                             0.3823382229009421                                0.385313349580451                                 0.3855377873926393                                0.3876549672476913
27600                                             0.382425672319359                                 0.38540366343578203                               0.38563155031993307                               0.3877613597260642
28200                                             0.3825129828211579                                0.38549397729108875                               0.38572531324722664                               0.38786775220442427
28800                                             0.3825868291357486                                0.3855842911464308                                0.3858170174591466                                0.38797414468278696
29400                                             0.3826606754503438                                0.3856746050017505                                0.38590192784833416                               0.38807176970895113
30000                                             0.38273452176492345                               0.38576491885707576                               0.38598683823751107                               0.3881678395800699
30600                                             0.3828083680795167                                0.38585469195706273                               0.386071748626682                                 0.3882639094511967
31200                                             0.3828822143941066                                0.3859364531948197                                0.38615665901586205                               0.3883599793223121
31800                                             0.38295606070869836                               0.38601821443258544                               0.3862415694050329                                0.3884560491934252
32400                                             0.38302990702327466                               0.3860999756703429                                0.3863264797941986                                0.3885521190645228
33000                                             0.38310375333787305                               0.3861817369080877                                0.3864113901833994                                0.3886481889356495
33600                                             0.38317759965243736                               0.38626349814585115                               0.38649630057259154                               0.38874425880676505
34200                                             0.38325144596702615                               0.3863452593835852                                0.38658121096173503                               0.3888403286778588
34800                                             0.38332529228160506                               0.3864270206213583                                0.38666612135092543                               0.38893639854897316
35400                                             0.38339913859618474                               0.3865087818591172                                0.38675103174009823                               0.3890324684200924
36000                                             0.38347298491079906                               0.3865905430968583                                0.3868359421292771                                0.38912853829121324
36600                                             0.38354683122537037                               0.38667230433460364                               0.38692085251845365                               0.38922460816232457
37200                                             0.3836206775399581                                0.3867540655723693                                0.38700576290762434                               0.3893206780334388
37800                                             0.3836945238545323                                0.3868358268101229                                0.38709028681819846                               0.3894167479045411
38400                                             0.38376837016912657                               0.3869175880478682                                0.3871636470819361                                0.3895026753083724
39000                                             0.3838422164837169                                0.38699934928563373                               0.3872370073456592                                0.3895857175329997
39600                                             0.3839160627983044                                0.3870811105233892                                0.38731036760938103                               0.3896687597576476
40200                                             0.3839899091128846                                0.3871628717611479                                0.3873837278730958                                0.3897518019822775
40800                                             0.3840503301633686                                0.3872336859458938                                0.38745708813680485                               0.3898348442069199
41400                                             0.3841104918037931                                0.3873043282260314                                0.3875304484005325                                0.3899178864315862
42000                                             0.384170653444234                                 0.38737497050613856                               0.3876038086642693                                0.3900009286562121
42600                                             0.3842308150846494                                0.38744561278628853                               0.38767716892799664                               0.3900839708808611
43200                                             0.38429097672510326                               0.38751625506643433                               0.38775052919172953                               0.3901670131055142
43800                                             0.3843511383655492                                0.3875868973465466                                0.3878238894554449                                0.3902500553301456
44400                                             0.384411300005988                                 0.3876575396266794                                0.38789724971916323                               0.39033309755480233
45000                                             0.38447146164641655                               0.3877281819068115                                0.38797060998289573                               0.3904161397794443
45600                                             0.3845316232868349                                0.38779882418696304                               0.38804397024659787                               0.3904991820040912
46200                                             0.38459178492729684                               0.3878694664670763                                0.388117330510323                                 0.3905822242287283
46800                                             0.38465194656772544                               0.3879401087472085                                0.38819069077405455                               0.39066526645334193
47400                                             0.3847121082081598                                0.3880107510273412                                0.3882640510377678                                0.39074830867802757
48000                                             0.3847722698486178                                0.38808139330746666                               0.38833741130149374                               0.390831350902655
48600                                             0.3848324314890442                                0.38815203558761596                               0.38841077156523407                               0.39091439312732057
49200                                             0.38489259312946955                               0.3882226778677498                                0.38848413182894626                               0.39099743535196085
49800                                             0.384952754769931                                 0.3882933201478686                                0.3885574920926679                                0.39108047757659986
50400                                             0.38501291641036706                               0.38836396242800314                               0.3886308523563821                                0.3911635198012568
51000                                             0.3850730780507919                                0.38843460470814                                  0.3887042126201089                                0.39124656202588315
51600                                             0.3851332396912263                                0.3885052469882499                                0.3887775728838435                                0.3913296042505329
52200                                             0.38519340133166524                               0.3885758892684102                                0.3888509331475571                                0.3914126464751558
52800                                             0.3852535629720943                                0.3886465315485278                                0.38892429341127877                               0.3914956886998277
53400                                             0.38531372461255764                               0.38871717382866044                               0.38899765367500566                               0.39157873092446477
54000                                             0.3853738862529916                                0.38878781610880836                               0.38907101393871885                               0.39166177314909506
54600                                             0.3854340478934218                                0.38885845838892613                               0.3891443742024426                                0.39174481537375366
55200                                             0.3854942095338795                                0.38892910066905595                               0.38921773446618685                               0.3918278575983958
55800                                             0.3855543711743023                                0.38899974294919504                               0.38929109472990425                               0.39191089982304517
56400                                             0.3856145328147312                                0.38907038522932597                               0.3893594384516634                                0.3919883441699135
57000                                             0.38567469445514385                               0.3891410275094622                                0.3894249020062994                                0.3920625973153546
57600                                             0.3857348560956106                                0.3892116697895898                                0.3894903655609247                                0.39213685046078545
58200                                             0.3857950177360428                                0.3892823120697174                                0.38955582911554837                               0.39221110360620404
58800                                             0.38585517937649905                               0.38935295434984224                               0.38962129267016515                               0.39228535675163023
59400                                             0.38591534101692165                               0.389423596629974                                 0.3896867562247998                                0.39235960989707297
60000                                             0.38597550265736097                               0.3894879464122988                                0.38975221977944685                               0.3924338630424998
60600                                             0.386035664297794                                 0.3895509813834148                                0.3898176833340691                                0.39250811618792036
61200                                             0.3860958259382336                                0.3896140163544859                                0.38988314688870307                               0.3925823693333697
61800                                             0.3861559875786751                                0.3896770513255763                                0.3899486104433287                                0.3926566224787769
62400                                             0.38621614921911007                               0.38974008629668194                               0.3900140739979481                                0.3927308756242106
63000                                             0.386276310859553                                 0.3898031212677788                                0.3900795375525817                                0.39280512876964113
63600                                             0.38633647249997277                               0.3898661562388855                                0.3901450011072153                                0.3928793819150778
64200                                             0.3863966341404177                                0.3899291912099764                                0.3902104646618378                                0.3929536350605231
64800                                             0.3864493676246826                                0.38999222618104795                               0.3902759282164854                                0.39302788820594303
65400                                             0.386501478869871                                 0.3900552611521486                                0.3903413917711049                                0.3931021413513721
66000                                             0.38655359011508594                               0.39011829612323595                               0.3904068553257263                                0.3931763944968153
66600                                             0.3866057013602927                                0.3901813310943415                                0.39047231888036543                               0.39325064764224577
67200                                             0.38665781260549215                               0.3902443660654307                                0.3905377824349922                                0.3933249007876577
67800                                             0.386709923850706                                 0.390307401036534                                 0.39060324598961943                               0.3933991539331035
68400                                             0.38676203509592                                  0.39037043600763094                               0.3906687095442615                                0.39347340707852596
69000                                             0.38681414634112915                               0.3904334709787389                                0.39073417309888714                               0.39354766022395704
69600                                             0.38686625758633447                               0.39049650594981694                               0.39079963665350265                               0.39362191336937913
70200                                             0.38691836883156194                               0.39055954092090206                               0.39086510020815335                               0.39369616651481043
70800                                             0.386970480076758                                 0.3906225758920179                                0.390930563762771                                 0.3937704196602669
71400                                             0.3870225913219579                                0.3906856108631045                                0.3909960273173954                                0.3938446728056701
72000                                             0.38707470256716936                               0.39074864583419355                               0.3910614908720144                                0.3939189259511156
72600                                             0.3871268138123836                                0.3908116808052973                                0.3911269544266396                                0.39399317909654963
73200                                             0.38717892505757273                               0.390874715776383                                 0.3911924179812715                                0.3940674322419524
73800                                             0.3872310363027845                                0.3909377507475104                                0.3912578815359123                                0.39414168538739247
74400                                             0.3872831475479932                                0.3910007857185878                                0.3913210688575654                                0.3942106435367169
75000                                             0.38733525879321745                               0.3910638206896712                                0.3913769312501289                                0.3942742060189535
75600                                             0.3873873700384205                                0.39112685566076666                               0.3914327936427022                                0.3943377685011935
76200                                             0.3874394812836216                                0.39118989063185755                               0.391488656035243                                 0.39440133098343816
76800                                             0.38749159252883475                               0.3912529256029635                                0.39154451842781696                               0.39446489346569374
77400                                             0.38754370377404407                               0.39131596057405554                               0.3916003808203777                                0.3945284559479369
78000                                             0.38759581501924295                               0.39137899554515004                               0.39165624321295023                               0.3945920184301604
78600                                             0.3876479262644464                                0.3914420305162511                                0.39171210560550157                               0.3946555809124368
79200                                             0.3877000375096606                                0.3914988589167048                                0.39176796799810026                               0.3947191433946708
79800                                             0.3877521487548768                                0.39155262744487124                               0.3918238303906336                                0.39478270587692016