% Model:              fick_darcy_1fce_CLT1D_closed.mph
% Version:            COMSOL 6.3.0.420
% Date:               Nov 24 2025, 22:59
% Table:              average - Volume Average 1
% Time (s)                                        c_b (1)                                           c_b-at('first',c_b) (1)                           c_b (1)                                           c_b-at('first',c_b) (1)                           c_b (1)                                           c_b-at('first',c_b) (1)                           c_b (1)                                           c_b-at('first',c_b) (1)                           c_b (1)                                           c_b-at('first',c_b) (1)                           c_b (1)                                           c_b-at('first',c_b) (1)                           c_b (1)                                           c_b-at('first',c_b) (1)                           c_b (1)                                           c_b-at('first',c_b) (1)                           c_b (1)                                           c_b-at('first',c_b) (1)                           c_b (1)                                           c_b-at('first',c_b) (1)                           c_b (1)                                           c_b-at('first',c_b) (1)
0                                                 0.10112788234120107                               0                                                 0.1011360747855015                                0                                                 0.10113309519672013                               0                                                 0.10113138447239681                               0                                                 0.10113099469978348                               0                                                 0.10113138413388031                               0                                                 0.10113110359039791                               0                                                 0.1011313527128291                                0                                                 0.10113135273402506                               0                                                 0.10113150215694056                               0                                                 0.10113160177412259                               0
43308                                             0.10759966202494652                               0.006471779683744896                              0.10811129943004771                               0.00697522464454592                               0.10533806880130354                               0.0042049736045831855                             0.10310571210516416                               0.001974327632765829                              0.10209948632337479                               9.684916235898671E-4                              0.10310613311148814                               0.0019747489776090832                             0.10219378522264598                               0.00106268163224803                               0.10273437188182798                               0.0016030191689994536                             0.10273421141043274                               0.0016028586764070681                             0.10303861145257621                               0.0019071092956357693                             0.10321592230898625                               0.002084320534863486
86616                                             0.11104109544595904                               0.009913213104758123                              0.11167072759655705                               0.010534652811053773                              0.10776350707148266                               0.006630411874761436                              0.10456880199429995                               0.0034374175219041977                             0.10310786116126047                               0.0019768664614774755                             0.1045663782661261                                0.0034349941322456452                             0.10327176902190283                               0.0021406654315048613                             0.10408448549248957                               0.002953132779661033                              0.10408410855221066                               0.0029527558181849964                             0.10451876548811691                               0.0033872633311760533                             0.10477047970550636                               0.003638877931383522
129924                                            0.11365236957456694                               0.012524487233365349                              0.11439427747463893                               0.013258202689135619                              0.10961096561152962                               0.008477870414809473                              0.10571024812036955                               0.004578863647972156                              0.10391262775983022                               0.0027816330600465835                             0.10571551197200932                               0.00458412783812867                               0.1041318018241622                                0.0030006982337632947                             0.10512345614934539                               0.00399210343651441                               0.10512292371314255                               0.003991570979117112                              0.10565634307305329                               0.004524840916111093                              0.10595902455101955                               0.0048274227768968165
173232                                            0.11582961958682332                               0.01470173724562333                               0.1166705252468167                                0.01553445046131355                               0.11116688918869068                               0.010033793991971218                              0.10666261630388134                               0.005531231831483605                              0.10460208926689886                               0.0034710945671149094                             0.10666230510024151                               0.00553092096636109                               0.10483922297486317                               0.0037081193844637804                             0.10600776084983257                               0.004876408137003795                              0.10600657695315584                               0.004875224219130511                              0.10660919325308998                               0.0054776910961504555                             0.10696537682895108                               0.005833775054828538
216540                                            0.11769213072625705                               0.016564248385056504                              0.11864479898539483                               0.017508724199892946                              0.11252106044628571                               0.011387965249565155                              0.10747426375350858                               0.006342879281110675                              0.10519869607160204                               0.0040677013718175515                             0.10747480116596184                               0.00634341703208126                               0.10545927712177854                               0.004328173531379803                              0.10675727062444496                               0.005625917911615128                              0.10675840853792043                               0.005627055803895353                              0.10741669637682356                               0.006285194219882809                              0.10781030441553567                               0.0066787026414125384
259848                                            0.11936384531162329                               0.01823596297042211                               0.12042626746916368                               0.019290192683661913                              0.11374567378087015                               0.012612578584150134                              0.10820705437242341                               0.007075669900025941                              0.10573805802630726                               0.004607063326524699                              0.10820210878575204                               0.007070724651872661                              0.10602737138018523                               0.004896267789787947                              0.10742843943602094                               0.006297086723190524                              0.10743326274095658                               0.006301910006931803                              0.10813893433667894                               0.007007432179736797                              0.1085949117162106                                0.007463309942088158
303156                                            0.12090574479433627                               0.019777862453135554                              0.12206185336194647                               0.020925778576445817                              0.11487487464284293                               0.01374177944612156                               0.10889088123816885                               0.007759496765771639                              0.10624002178050986                               0.005109027080724947                              0.10888655878038946                               0.007755174646508924                              0.10656025733184343                               0.005429153741443995                              0.10805245295394938                               0.0069211002411200965                             0.10805740493991046                               0.006926052205884935                              0.108828733326562                                 0.007697231169621213                              0.10932958968404853                               0.008197987909924176
346464                                            0.12233765746430454                               0.02120977512310335                               0.12359047761238913                               0.022454402826888122                              0.11593668558543367                               0.014803590388713029                              0.10951996578575078                               0.008388581313352884                              0.10670252658833752                               0.005571531888554166                              0.10952401888981836                               0.008392634755936943                              0.10705418766921007                               0.005923084078812021                              0.10864160386365498                               0.007510251150826136                              0.10864677123522908                               0.007515418501202577                              0.10948145547840625                               0.008349953321465979                              0.1100195091937916                                0.008887907419669392
389772                                            0.12367518454374074                               0.022547302202540025                              0.1250157896572764                                0.023879714871775353                              0.11692708530706371                               0.015793990110341116                              0.11011960507666035                               0.00898822060426293                               0.10714705266984656                               0.006016057970063039                              0.11012507844103941                               0.008993694307157525                              0.10751443125367387                               0.006383327663275752                              0.10921179158867611                               0.008080438875845744                              0.1092115920773092                                0.00808023934328459                               0.11011390713237526                               0.00898240497543153                               0.11066972661175355                               0.009538124837630103
433080                                            0.12494759807685815                               0.023819715735656388                              0.12638045857112976                               0.025244383785629584                              0.11787305187561689                               0.016739956678896294                              0.11069894002862747                               0.009567555556230997                              0.10757319821115965                               0.006442203511376548                              0.11069689704018282                               0.00956551290630261                               0.10795453768119853                               0.0068234340907999                                0.10976265945477842                               0.008631306741948397                              0.1097560259200464                                0.008624673186020202                              0.11070581627781557                               0.00957431412087505                               0.11129214450132185                               0.010160542727198522
476388                                            0.12611841881709926                               0.02499053647589815                               0.12764031146471314                               0.026504236679211767                              0.11877045316930497                               0.01763735797258253                               0.11123068927284611                               0.010099304800448171                              0.107963435307814                                 0.006832440608028637                              0.11123125926893786                               0.010099875135056769                              0.10837028931199992                               0.007239185721602871                              0.11026789665374372                               0.00913654394091461                               0.1102674971463522                                0.009136144412326078                              0.11126136782012894                               0.010129865663188811                              0.11187704637577439                               0.010745444601651546
519696                                            0.1272103460979349                                0.02608246375673344                               0.12882519634432593                               0.027689121558823405                              0.11961475614501343                               0.01848166094829281                               0.11173123534962008                               0.010599850877222688                              0.10832446219413563                               0.007193467494351451                              0.1117328132014039                                0.01060142906752408                               0.108761518805922                                 0.007630415215525254                              0.11073982699442916                               0.009608474281599225                              0.11074005073628122                               0.00960869800225568                               0.11177596345358581                               0.01064446129664375                               0.11242042173705981                               0.01128881996293806
563004                                            0.12827951041527988                               0.02715162807407855                               0.12999176584536656                               0.02885569105986552                               0.12041980110506853                               0.019286705908347735                              0.1122193753808374                                0.011087990908439479                              0.10868219066820238                               0.00755119596841785                               0.11222345346853405                               0.011092069334653927                              0.10914379881401094                               0.008012695223612715                              0.11120137468183085                               0.010070021969002573                              0.11120506315253091                               0.010073710418506378                              0.11228028756573735                               0.01114878540879619                               0.11295550722971155                               0.011823905455589988
606312                                            0.12928554076575172                               0.028157658424550158                              0.13108554461523964                               0.02994946982973878                               0.1211966834525848                                0.020063588255864635                              0.11268617918824687                               0.0115547947158498                                0.1090333805922746                                0.007902385892489249                              0.1126948028758111                                0.011563418741931212                              0.10950915795979109                               0.008378054369391463                              0.1116530171307126                                0.010521664417884463                              0.11165793019200271                               0.010526577457976331                              0.1127721797772154                                0.01164067762027659                               0.11346871783940515                               0.012337116065282854
649620                                            0.13025662531693258                               0.029128742975731255                              0.13213946068292126                               0.031003385897419414                              0.12195414627437744                               0.02082105107765894                               0.1131406594047194                                0.01200927493232185                               0.10937434933239662                               0.008243354632611891                              0.11314722231531174                               0.012015838181431517                              0.10987498481082761                               0.00874388122043019                               0.11209074148300513                               0.01095938877017401                               0.1120967701127367                                0.010965417378711387                              0.11324642565431883                               0.012114923497377436                              0.11396639072838319                               0.012834788954260731
692928                                            0.13118114374333287                               0.030053261402132384                              0.13316664235620157                               0.0320305675706979                                0.12268257099343179                               0.021549475796709575                              0.113569008585301                                 0.012437624112903358                              0.10969503457420177                               0.008564039874418889                              0.11357401157553779                               0.012442627441656222                              0.11021526241029964                               0.009084158819901506                              0.11250128470240403                               0.011369931989573537                              0.11250862410742123                               0.011377271373394678                              0.11369110586120405                               0.01255960370426527                               0.11443691705267456                               0.01330531527855099
736236                                            0.13206036473191532                               0.030932482390714753                              0.13413826146415914                               0.033002186678655676                              0.12336847900389623                               0.02223538380717535                               0.11397296691812175                               0.012841582445724527                              0.10999369077760866                               0.00886269607782617                               0.11397794373167228                               0.012846559597790587                              0.11053875707563629                               0.00940765348523986                               0.11289948151185035                               0.011768128799021298                              0.11290608614430434                               0.011774733410279395                              0.11411770333067736                               0.01298620117373619                               0.11488734770484704                               0.01375574593072517
779544                                            0.13287291589200803                               0.031745033550806344                              0.1350515921576319                                0.03391551737212865                               0.1240159545713254                                0.02288285937460464                               0.11435055347957163                               0.013219169007172694                              0.11027233620673124                               0.009141341506947584                              0.11435694107943427                               0.013225556945554853                              0.11083765767406067                               0.009706554083662545                              0.11326446032483684                               0.012133107612007086                              0.11327189579719511                               0.012140543063169277                              0.11451960896745116                               0.013388106810511224                              0.11530888931427652                               0.014177287540155358
822852                                            0.1336539225016373                                0.032526040160436656                              0.13593881285685527                               0.03480273807135259                               0.12464351937540703                               0.02351042417868826                               0.11471146417966223                               0.013580079707264834                              0.11053641362594087                               0.009405418926156808                              0.11472063087954056                               0.013589246745660803                              0.11112723718179421                               0.009996133591395166                              0.11361328304706104                               0.01248193033423293                               0.11362220048656088                               0.012490847752536895                              0.11490602912337539                               0.013774526966434043                              0.11571871228332094                               0.014587110509197762
866160                                            0.1344108247689044                                0.03328294242770387                               0.13680447777331844                               0.03566840298781528                               0.12524495782658704                               0.024111862629863045                              0.11505899987178363                               0.013927615399386027                              0.11079398366913767                               0.009662988969354443                              0.11507282402527105                               0.013941439891390479                              0.11140663763463                                  0.010275534044233281                              0.11394958982838108                               0.01281823711555153                               0.11396199245007271                               0.01283063971604592                               0.11527657190482207                               0.014145069747881496                              0.11612284932699891                               0.014991247552876188
909468                                            0.13515314902349873                               0.03402526668229761                               0.1376510587865972                                0.03651498400109575                               0.12585091521658268                               0.024717820019861003                              0.1154051314715754                                0.014273746999176152                              0.11105001586423068                               0.00991902116444654                               0.1154198231709659                                0.014288439037086011                              0.11168557977512841                               0.01055447618472962                               0.11428614675461089                               0.013154794041780346                              0.11429964329972196                               0.013168290565698187                              0.11564613629146364                               0.014514634134523594                              0.1165109739896183                                0.015379372215494562
952776                                            0.13589143942183068                               0.03476355708062831                               0.13848833649013628                               0.037352261704633904                              0.12645292604050198                               0.02531983084378337                               0.11575796389146446                               0.014626579419066353                              0.11131449484925808                               0.010183500149474478                              0.11577346611970081                               0.014642081985820463                              0.1119748161619266                                0.010843712571530046                              0.11463143807455328                               0.01350008536172549                               0.11464525791452282                               0.013513905180497035                              0.11603625859152698                               0.01490475643458544                               0.1169058548203633                                0.015774253046238546
996084                                            0.13661585459128017                               0.03548797225007893                               0.13930273367493967                               0.03816665888943549                               0.1270351943273315                                0.025902099130610687                              0.1161089489416122                                0.01497756446921626                               0.111584911298762                                 0.01045391659897853                               0.11612283285601711                               0.014991448722136185                              0.11226169983162779                               0.011130596241228662                              0.11497614233651726                               0.01384478962368647                               0.11498986719505896                               0.013858514461033202                              0.11640894767261978                               0.015277445515678055                              0.11729630676064286                               0.016164704986520177
1039392                                           0.13732467558104056                               0.036196793239839285                              0.1401014646500817                                0.03896538986458179                               0.1276084614721841                                0.026475366275464516                              0.11645533721573191                               0.015323952743334401                              0.1118479954176145                                0.010717000717832131                              0.11646679704656498                               0.015335412912684298                              0.1125453645094376                                0.011414260919040629                              0.1153153506865698                                0.014183997973740415                              0.11533020586955492                               0.014198853135531032                              0.1167766713189965                                0.015645169162054707                              0.11768064525926647                               0.01654904348514214